compound,heusler_type,mp_id,formula,formation_energy,absolute_energy,band_gap,fermi_energy,bulk_modulus,poisson_ratio,Nv
CoMnGe,half,mp-22289,Mn2CoGe,-0.15014941521551783,-7.670268205,0.0,7.58112019,176.138,0.331,20
CoMnSn,half,mp-1221649,MnCoNiSn,-0.10784307073275912,-6.6291282075,0.0,8.32156153,,,20
CoMnSn,half,mp-1221622,MnCoSnRh,-0.2502795532327582,-7.1676074875,0.0,7.8756234,,,20
CoMnSn,half,mp-20840,MnCo2Sn,-0.1082658557327596,-6.967871002500001,0.0,7.81922918,166.928,0.289,20
CoMnP,half,mp-760077,MnFeCo(PO4)3,-2.25167672885331,-7.831623310416666,0.5024,2.12242092,,,21
CoMnP,half,mp-1221741,Mn3CoP4,-0.6033875540455655,-7.63855714125,0.0,9.08539414,,,21
CoMnP,half,mp-1176481,MnFeCo(PO4)3,-2.256216780381089,-7.836163361944445,0.001000000000000112,1.70191218,,,21
CoMnAs,half,mp-1102618,MnCoAs,-0.266606341810346,-7.2551245233333335,0.0,7.03387142,,,21
CoMnAs,half,mp-1017515,Mn2CoAs,-0.07158170834051791,-7.6034741675,0.0,7.75469494,199.678,0.33,21
CoMnAs,half,mp-1221723,Mn3CoAs2,-0.15235353479885086,-7.4789714783333325,0.0,6.04771871,,,21
CoMnSb,half,mp-570203,MnCoSb,-0.1727582972270104,-6.9809027145833324,0.0,7.39332766,,,21
CoMnSb,half,mp-5396,MnCo2Sb,-0.13221665698275942,-7.021679150000001,0.0,8.58671314,174.535,0.309,21
CoMnSb,half,mp-13085,Mn2CoSb,-0.0020621439655172935,-7.39867428,0.0,8.64739393,171.446,0.31,21
CoFeAl,half,mp-1221633,MnAlFeCo,-0.2483681319827591,-7.376125395,0.0,6.86531309,,,20
CoFeAl,half,mp-10884,AlFeCo2,-0.3587966250000001,-6.979404245,0.0,6.60723177,187.706,0.267,20
CoFeAl,half,mp-1008530,AlVFeCo,-0.3942140649999999,-7.5024440225,0.0,7.29932501,204.053,0.321,20
CoFeGa,half,mp-636212,GaFe2Co,-0.043305436875000325,-6.8186942275,0.0,5.50710269,157.963,0.453,20
CoFeGa,half,mp-1225114,GaFe4Co8Si3,-0.3150710492187505,-7.2057878437500005,0.0,7.44230769,,,20
CoFeGa,half,mp-1224895,GaFe2Co,-0.1480834343750006,-6.923472225,0.0,5.55152446,,,20
CoFeIn,half,mp-1224078,InFeCoO4,-1.6369173616666675,-7.090012585000001,1.7942000000000005,3.71736089,,,20
CoFeIn,half,mp-21211,InFeCo2,0.07908387083333324,-6.2949232275,0.0,7.26375675,160.068,0.324,20
CoFeSi,half,mp-1220405,Nd2Fe3CoSi4,-0.6323274754999992,-7.010432208999999,0.0,6.3791701,,,21
CoFeSi,half,mp-1207117,Fe2CoSi,-0.35014793499999985,-7.7248422275,0.0,7.75925315,,,21
CoFeSi,half,mp-1213726,CrFeCoSi,-0.26834161249999866,-7.938792469999999,0.0,8.37528824,,,21
CoFeGe,half,mp-1025047,FeCoGe,-0.10510959666666626,-6.847264858333333,0.0,7.02717116,,,21
CoFeGe,half,mp-22300,FeCo2Ge,-0.1586249237500006,-6.99859555,0.0,7.46368314,183.305,0.356,21
CoFeGe,half,mp-1063914,VFeCoGe,-0.25128076624999984,-7.57887373,0.0,7.59230954,,,21
CoFeSn,half,mp-758618,Fe3Co2Sn(PO4)6,-2.244201794523809,-7.661802889444445,0.0,2.02356541,,,21
CoFeSn,half,mp-1225025,FeCoSn,0.2916832550000012,-6.245986673333333,0.0,8.96438239,,,21
CoFeSn,half,mp-1025124,FeCoSn,0.11972129833333393,-6.417948630000001,0.0,8.42693447,,,21
CoFeP,half,mp-760077,MnFeCo(PO4)3,-2.25167672885331,-7.831623310416666,0.5024,2.12242092,,,22
CoFeP,half,mp-1176481,MnFeCo(PO4)3,-2.256216780381089,-7.836163361944445,0.001000000000000112,1.70191218,,,22
CoFeP,half,mp-759846,Li3MnFeCo(PO4)3,-2.461936043421886,-7.5174506657142866,1.8256000000000001,4.85494986,,,22
CoFeAs,half,mp-998974,TiFeCoAs,-0.36153024520833377,-7.403793365,0.0,8.13994071,187.342,0.371,22
CoFeAs,half,mp-675526,FeCoAs,-0.12042472472222225,-6.878278212222223,0.0,7.0888007,,,22
CoFeAs,half,mp-1066006,VFeCoAs,-0.09063114187500076,-7.429997775,0.0,7.99690028,,,22
CoFeSb,half,mp-2216303,MgFe3Co2Sb(PO4)6,-2.276068294942084,-7.594542317027027,1.6864999999999997,2.24973809,,,22
CoFeSb,half,mp-1234239,MgFe3Co2Sb(PO4)6,-2.2258951608880295,-7.544369182972972,0.0,2.4341681,,,22
CoFeSb,half,mp-2216000,MgFe3Co2Sb(PO4)6,-2.21010293142857,-7.528576953513513,0.0,3.30817715,,,22
CoNiAl,half,mp-1228972,AlCoNi6,-0.19779282500000228,-11.679871877500002,0.0,8.01437535,,,22
CoNiAl,half,mp-1214804,AlCo2Ni,-0.22478804950000075,-11.520357487000002,0.0,7.18050741,,,22
CoNiAl,half,mp-1214822,AlCo2Ni,-0.24212216449999957,-11.537691602,0.0,7.27373039,,,22
CoNiGa,half,mp-1224797,GaCo2Ni,-0.03364618710622658,-12.506885029606227,0.0,6.1096573,,,22
CoNiGa,half,mp-20551,GaCo2Ni,-0.11964586460622506,-12.592884707106226,0.0,5.94330911,,,22
CoNiGa,half,mp-1007821,GaCo2Ni,-0.1049108371062264,-12.578149679606227,0.0,5.99426997,198.722,0.376,22
CoNiIn,half,mp-1217480,Ti8InCo3NiSn3,-0.1570365480208329,-6.727799815625,0.0,7.82522491,,,22
CoNiIn,half,mp-1217339,Ti4In2CoNi,-0.0750060983333336,-6.3267397175,0.0,7.35740602,,,22
CoNiIn,half,mp-1217465,Ti8In4CoNi3,-0.07563291895833313,-6.242786535625,0.0,7.38670084,,,22
CoNiSi,half,mp-1226006,CoSi4Ni,-0.42309461000000087,-10.474929055,0.0,9.84234981,,,23
CoNiSi,half,mp-1227707,Ca4Co3Si8NiO24,-2.946267712249999,-7.88275921075,3.1496000000000004,6.85159403,,,23
CoNiSi,half,mp-1102115,CoSiNi,-0.41712678750000026,-11.747031082500001,0.0,9.036419,,,23
CoNiGe,half,mp-1226021,CoNiGe,-0.1452403766666658,-13.174548999999999,0.0,8.0414821,,,23
CoNiGe,half,mp-1226015,CoNiGe,-0.13387670166666746,-13.163185325,0.0,8.23084872,,,23
CoNiGe,half,mp-1216316,UCoNiGe2,-0.33666099199999877,-7.026864816,0.0,9.03659064,,,23
CoNiSn,half,mp-1221649,MnCoNiSn,-0.10784307073275912,-6.6291282075,0.0,8.32156153,,,23
CoNiSn,half,mp-1226203,CoNi2Sn,0.05337484625000025,-5.6224406375,0.0,8.84083582,,,23
CoNiSn,half,mp-20237,CoNiSn,-0.009581299999999496,-5.650623051666667,0.0,9.08595449,160.052,0.36,23
CoNiP,half,mp-1206541,CoNiP,-0.4249859604365061,-11.83099416111111,0.0,9.34229775,,,24
CoNiP,half,mp-1229196,CoNiP4(H8O5)4,-1.2619160492857138,-5.438916876724138,2.9800000000000004,2.17386617,,,24
CoNiP,half,mp-1226111,Co7NiP4,-0.4079745234920627,-12.127111216666668,0.0,8.62331637,,,24
CoNiAs,half,mp-1079542,CoNiAs,-0.1547956619139907,-13.462622087747324,0.0,7.78838707,,,24
CoNiAs,half,mp-1226061,CoNi(AsS)2,-0.5280502208333336,-5.616469820833333,0.0,7.43489566,,,24
CoNiAs,half,mp-1226009,CoNiAs2,-0.23421849392045502,-13.891971060170455,0.0,7.17886362,,,24
CoNiSb,half,mp-1226172,CoNiSb,0.07073994944444609,-16.90334805722222,0.0,8.14100636,,,24
CoNiSb,half,mp-758112,Co2Ni3Sb(PO4)6,-2.0567821313293644,-7.253543665,0.0,1.76671639,,,24
CoNiSb,half,mp-1025009,CoNiSb,0.04495197666666684,-16.92913603,0.0,9.8345615,,,24
FeTiAl,half,mp-1217171,TiAlFe,-0.36800526027777875,-7.0717016125,0.0,6.83724032,,,15
FeTiAl,half,mp-31187,TiAlFe2,-0.45416650083333376,-7.5994440675,0.0,6.9459049,184.183,0.299,15
FeTiAl,half,mp-1217020,TiAlFe2,-0.39727998333333314,-7.54255755,0.0,7.0453546,,,15
FeTiGa,half,mp-636320,TiGaFe2,-0.3604702627083327,-7.3263778775,0.0,6.15493887,190.307,0.272,15
FeTiGa,half,mp-998964,TiGaFeCo,-0.4717893527083339,-7.103545845,0.0,6.3154062,192.595,0.255,15
FeTiGa,half,mp-999059,Ti2GaFe,-0.23803798604166726,-7.0603133025,0.0,6.3018882,,,15
FeTiSi,half,mp-21662,TiFeSi2,-0.6451685506250003,-7.449205872291667,0.0,8.80876096,180.482,-0.966,16
FeTiSi,half,mp-866141,TiFe2Si,-0.6748571133333341,-8.24007023,0.4015999999999984,8.38954649,230.374,0.238,16
FeTiSi,half,mp-1202235,BaTiFe2(SiO5)2,-2.7682091780208324,-8.213695594375,0.0,2.18394626,,,16
FeTiGe,half,mp-866375,TiFe2Ge,-0.4796407220833334,-7.844281295,0.1708999999999996,7.16593483,210.464,0.248,16
FeTiGe,half,mp-1208403,TiFeGe,-0.541334449444444,-7.53751481,0.0,6.04784269,,,16
FeTiGe,half,mp-1018012,TiFeCoGe,-0.46164263208333356,-7.4921320825,0.0,7.8080298,197.425,0.336,16
FeTiSn,half,mp-19963,TiFe2Sn,-0.2695724920833342,-7.480849065000001,0.04870000000000019,8.82910951,183.277,0.253,16
FeTiSn,half,mp-22589,TiFeSn,0.4075125338888898,-6.384182493333333,0.0,5.41437945,73.93,0.529,16
FeTiSn,half,mp-1101366,Ti3Fe2Sn(PO4)6,-2.716767801190476,-8.160747268333333,0.07749999999999968,4.38323043,,,16
FeTiP,half,mp-1101312,TiCr2Fe3(PO4)6,-2.502818591699736,-8.168341399444445,0.0,2.67367452,,,17
FeTiP,half,mp-775272,TiFe3(PO4)6,-2.2980111647408954,-7.728973698235294,0.0,-0.50752441,,,17
FeTiP,half,mp-694979,Na2TiFe(PO4)3,-2.715343641316869,-7.700740485,2.3154000000000003,1.1967684,,,17
FeTiAs,half,mp-998974,TiFeCoAs,-0.36153024520833377,-7.403793365,0.0,8.13994071,187.342,0.371,17
FeTiAs,half,mp-999002,TiFe2As,-0.3295779777083334,-7.70599222,0.0,8.34327144,207.251,0.165,17
FeTiAs,half,mp-1095148,TiFeAs,-0.6694037936111132,-7.6812823800000025,0.0,7.49497804,,,17
FeTiSb,half,mp-998970,TiFe2Sb,-0.29650233083333344,-7.53763625,0.0,9.19493491,187.429,0.429,17
FeTiSb,half,mp-778503,Ti3Fe2Sb(PO4)6,-2.701930821051586,-8.14922777111111,0.028900000000000148,4.02785,,,17
FeTiSb,half,mp-998973,TiFeCoSb,-0.3517762133333333,-7.25875901,0.0,8.91973031,170.979,0.323,17
FeVAl,half,mp-1228827,AlV2Fe,-0.13389215249999964,-7.7297444475,0.0,6.59501668,,,16
FeVAl,half,mp-1008530,AlVFeCo,-0.3942140649999999,-7.5024440225,0.0,7.29932501,204.053,0.321,16
FeVAl,half,mp-1228804,AlVFe2,-0.13865449499999905,-7.581035575,0.0,6.64874373,,,16
FeVGa,half,mp-21883,VGaFe2,-0.29842107687499997,-7.561432205,0.0,6.4687618,222.851,0.267,16
FeVGa,half,mp-1216782,V2GaFe,-0.08609541687500144,-7.50257776,0.0,5.90383719,,,16
FeVGa,half,mp-1066581,VGaFeCo,-0.2710866093750006,-7.199946615,0.0,6.27583557,,,16
FeVSi,half,mp-1216327,VFe3Si4,-0.41396887750000033,-7.438374105,0.0,9.24603471,,,17
FeVSi,half,mp-1221563,MnV(Fe2Si)2,-0.4174628259913806,-8.289543108750001,0.0,8.40838232,,,17
FeVSi,half,mp-1066609,VFeCoSi,-0.4481346049999999,-7.9763001125,0.0,8.17728606,,,17
FeVGe,half,mp-1063914,VFeCoGe,-0.25128076624999984,-7.57887373,0.0,7.59230954,,,17
FeVGe,half,mp-1216977,V2FeGe,-0.29935772375,-8.114573025,0.0,7.42464867,,,17
FeVSn,half,mp-774750,V2Fe3Sn(PO4)6,-2.419798567301586,-7.9457601816666665,0.0,2.55488474,,,17
FeVSn,half,mp-636359,VFe2Sn,0.00271265875000104,-7.5056674275,0.0,8.85256522,,,17
FeVSn,half,mp-1216897,V2FeSn,-0.015350104999999559,-7.67720140625,0.0,7.73663023,,,17
FeVP,half,mp-2224790,MgVFeP2(O4F)2,-2.6986413246190466,-7.5957354619999995,1.6196000000000002,2.14695329,,,18
FeVP,half,mp-1177777,Li2VFeP2(HO5)2,-2.359135896025132,-7.276674238611111,1.7599,2.43203955,,,18
FeVP,half,mp-782634,VFe5(PO4)6,-2.3645705696626984,-7.997381197777778,1.3117000000000003,1.76667528,,,18
FeVAs,half,mp-1095040,VFeAs,-0.326053271666666,-7.7304018333333335,0.0,7.51551559,,,18
FeVAs,half,mp-1106248,Sr2VFeAsO3,-2.0277087993749987,-7.085920944374999,0.0,3.8502607,,,18
FeVAs,half,mp-1066006,VFeCoAs,-0.09063114187500076,-7.429997775,0.0,7.99690028,,,18
FeVSb,half,mp-1216330,VFeSbO6,-2.05603772,-7.766761148333334,0.2019000000000002,4.44499131,,,18
FeVSb,half,mp-567636,VFeSb,-0.2752190966666663,-7.502861936666666,0.3487,7.5395165,162.865,0.336,18
FeVSb,half,mp-774608,V3Fe2Sb(PO4)6,-2.460163840496032,-8.006495295,0.0,3.50098476,,,18
FeCrAl,half,mp-1228906,AlCrFe2,-0.15702917999999944,-7.74169561,0.0,7.63812097,,,17
FeCrAl,half,mp-1096119,Al2CrFe,2.4711119100000007,-3.932443175,0.0,-2.38772398,,,17
FeCrAl,half,mp-1229097,AlCrFeO4,-2.540379124999999,-8.494336182142858,1.4767000000000001,5.22066652,,,17
FeCrGa,half,mp-1226345,Cr3GaFe3As2,-0.018372544722222668,-7.433655558888889,0.0,6.29345241,,,17
FeCrGa,half,mp-30570,CrGaFe2,-0.027434201874998898,-7.43273068,0.0,6.39980137,204.598,0.28,17
FeCrGa,half,mp-1226233,CrGaFeSe4,-0.6365560995535711,-5.655814758571428,0.0,3.45763327,,,17
FeCrSi,half,mp-1213726,CrFeCoSi,-0.26834161249999866,-7.938792469999999,0.0,8.37528824,,,18
FeCrSi,half,mp-1226256,CrFeSi2,-0.3469316849999995,-7.59035787,0.0,9.30176412,,,18
FeCrSi,half,mp-1226343,CrFe11Si4,-0.2813790049999998,-8.06416356125,0.0,8.14462458,,,18
FeCrGe,half,mp-1226425,Cr3Fe3GeAs2,-0.06602189666666586,-7.658519558888888,0.0,7.10009447,,,18
FeCrGe,half,mp-1226385,CrFeGe2,-0.029818414999999376,-6.8720995125,0.0,7.7720566,,,18
FeCrSn,half,mp-1178427,Cr2Fe3Sn(PO4)6,-2.3744344967460314,-7.932015077777779,0.029199999999999893,3.40123785,,,18
FeCrSn,half,mp-1008226,CrFe2Sn,0.2543460687500003,-7.3963193675,0.0,8.22928574,143.331,0.427,18
FeCrSn,half,mp-775073,Li4Cr3Fe3(SnO8)2,-2.0715633326190477,-7.4022869317857145,0.0,3.10205876,,,18
FeCrP,half,mp-774450,Ti3CrFe2(PO4)6,-2.782928289107143,-8.383670967777778,0.10719999999999974,4.10266156,,,19
FeCrP,half,mp-777476,CrFe2(PO4)3,-2.3767023991071414,-8.05818435111111,1.6569,1.55372473,,,19
FeCrP,half,mp-766014,Li6CrFe3(PO4)6,-2.5003482901964267,-7.446943759999999,2.3823,1.40557525,,,19
FeCrAs,half,mp-1206083,CrFeAs,-0.0935419624999996,-7.6912723666666665,0.0,7.26749288,,,19
FeCrAs,half,mp-1189319,Sr2CrFeAsO3,-1.9697830406249999,-7.099137860625,0.0,3.85510842,,,19
FeCrAs,half,mp-1226345,Cr3GaFe3As2,-0.018372544722222668,-7.433655558888889,0.0,6.29345241,,,19
FeCrSb,half,mp-1222836,Li2Cr2FeSbO8,-2.1847588233333326,-7.566264030714286,1.891,3.35563923,,,19
FeCrSb,half,mp-861530,Li2Cr2FeSbO8,-2.1824709485119036,-7.563976155892857,1.6540999999999997,5.27516759,,,19
FeCrSb,half,mp-1008225,CrFe2Sb,0.14062806500000047,-7.5398947175,0.0,8.90062077,187.126,4.053,19
FeMnAl,half,mp-1221633,MnAlFeCo,-0.2483681319827591,-7.376125395,0.0,6.86531309,,,18
FeMnAl,half,mp-1221620,MnAlFe2,-0.133765804482759,-7.59567419,0.0,6.25488988,,,18
FeMnAl,half,mp-31185,MnAlFe2,-0.19067050448275857,-7.65257889,0.0,6.98928397,204.228,0.235,18
FeMnGa,half,mp-1097314,MnGaFe2,2.6305809061422414,-4.6519575275,0.0,-2.6817609,,,18
FeMnGa,half,mp-1065753,MnGaFe2,-0.0768241663577589,-7.3593626,0.0,5.41165966,,,18
FeMnGa,half,mp-999552,MnGaFeCo,-0.12804293135775868,-7.0764302425,0.0,5.75671261,,,18
FeMnIn,half,mp-651406,MnInFe(CO)9,-0.6849406153975088,-7.7334917192261905,2.1518,0.30871252,,,18
FeMnIn,half,mp-1221611,MnInFe,0.3001349451340995,-6.496935136666667,0.0,7.55058451,,,18
FeMnIn,half,mp-1206457,MnInFe,0.2928296784674333,-6.504240403333333,0.0,6.63873187,,,18
FeMnSi,half,mp-1222097,Mn4Fe8SiGe3,-0.1602262791702591,-7.891640806875,0.0,7.70709251,,,19
FeMnSi,half,mp-5529,MnFe2Si,-0.3191894194827585,-8.201033355,0.0,8.05121851,237.181,0.452,19
FeMnSi,half,mp-1105397,MnFe4SiB2,-0.35925516078304653,-8.08753037375,0.0,7.43223956,,,19
FeMnGe,half,mp-1018071,MnFe2Ge,-0.11001521823275873,-7.79128661,0.0,7.47807372,213.562,0.46,19
FeMnGe,half,mp-1018024,MnFeCoGe,-0.1729985207327589,-7.52011879,0.0,7.23491723,205.404,0.312,19
FeMnGe,half,mp-1093841,MnFe2Ge,2.708829624267241,-4.9724417675,0.0,-2.66605456,,,19
FeMnSn,half,mp-1177457,Li4Mn2Fe3Sn(PO4)6,-2.431710311551312,-7.599873512249999,2.5061,2.15743078,,,19
FeMnSn,half,mp-850538,Mn2Fe3Sn(PO4)6,-2.382684559964422,-7.912985575555556,0.0,1.34580578,,,19
FeMnSn,half,mp-776652,Mn3Fe2Sn(PO4)6,-2.3460430396291727,-7.895566113055556,0.0,2.36721548,,,19
FeMnP,half,mp-760077,MnFeCo(PO4)3,-2.25167672885331,-7.831623310416666,0.5024,2.12242092,,,20
FeMnP,half,mp-1176481,MnFeCo(PO4)3,-2.256216780381089,-7.836163361944445,0.001000000000000112,1.70191218,,,20
FeMnP,half,mp-1201180,MnFe2(PO8)2,-1.1351766270103207,-6.667044451904762,0.0,-0.82967055,,,20
FeMnAs,half,mp-4238,MnFeAs,-0.19520789181034737,-7.629260903333336,0.0,7.25146101,159.384,0.298,20
FeMnAs,half,mp-505803,MnFeAs,-0.13832129014367922,-7.572374301666667,0.0,6.37665682,114.365,0.34,20
FeMnAs,half,mp-1221780,Mn3FeAs4,-0.24803312797413835,-7.07210071625,0.0,7.06804406,,,20
FeMnSb,half,mp-1221899,Mn2FeSbO6,-1.9357220010862064,-7.999385538,1.3392999999999997,4.7070724,,,20
FeMnSb,half,mp-1227954,CaMn25FeSi4SbO44,-2.2265274590562614,-8.58515746618421,0.01770000000000005,3.78379694,,,20
FeMnSb,half,mp-1189105,Mn2FeSbO6,-1.898524214086207,-7.962187751,1.2988999999999997,4.78656097,,,20
FeNiAl,half,mp-31186,AlFe2Ni,-0.09435004249999945,-6.710788775,0.0,7.15918299,133.148,-0.664,21
FeNiAl,half,mp-1228910,Al2FeNi,-0.5236166950000003,-5.9589440825,0.0,8.66497251,,,21
FeNiAl,half,mp-867330,Al2FeNi,-0.4992086899999997,-5.9345360775,0.0,8.85645316,163.496,0.27,21
FeNiGa,half,mp-622990,GaFe2Ni,-0.018714536875000576,-6.4557833175,0.0,5.90093716,158.207,-1.556,21
FeNiGa,half,mp-1065359,GaFeNi2,-0.19702273937499992,-5.9616203875,0.0,6.55779165,,,21
FeNiGa,half,mp-1224929,GaFeNiO4,-1.773262669642857,-7.071449641428572,0.0,3.60582852,,,21
FeNiIn,half,mp-1223864,InFeNi,0.19875887777777854,-5.471018333333333,0.0,8.28666256,,,21
FeNiIn,half,mp-1206345,InFeNi,0.29335328444444525,-5.376423926666667,0.0,7.9444052,,,21
FeNiIn,half,mp-1206342,InFeNi,0.11898380277777794,-5.550793408333334,0.0,8.15335748,,,21
FeNiSi,half,mp-1207121,Fe2SiNi,-0.2841897899999992,-7.3205640725,0.0,8.30838168,,,22
FeNiSi,half,mp-1212682,Fe3SiNi,-0.2575840720000002,-7.58068774,0.0,7.43736132,,,22
FeNiSi,half,mp-1103705,FeSiNi,-0.3934152391666655,-6.951907212499999,0.0,8.69028113,,,22
FeNiGe,half,mp-1206550,FeNiGe,-0.1554445383333333,-6.446506453333334,0.0,7.84451223,,,22
FeNiGe,half,mp-1024972,FeNiGe,-0.06452609833333274,-6.355588013333333,0.0,8.19493399,,,22
FeNiGe,half,mp-1225094,FeNi2Ge,-0.1616681562499993,-6.3249987625,0.0,8.18045895,,,22
FeNiSn,half,mp-1207152,FeNiSn,0.15344652666666767,-5.9331300549999995,0.0,8.86147165,,,22
FeNiSn,half,mp-775990,Fe3Ni2Sn(PO4)6,-2.2584388706349205,-7.600857741111112,0.0,1.48210535,,,22
FeNiSn,half,mp-780843,Li4Fe2Ni3Sn(PO4)6,-2.317048530904761,-7.248870687749999,3.0536,2.01722233,,,22
FeNiP,half,mp-1221201,Na4FeNi(PO4)3,-2.411944206402181,-6.949593075476191,2.1249000000000002,4.04690789,,,23
FeNiP,half,mp-1233940,MgCr2Fe3Ni(PO4)6,-2.3392839187258687,-7.838579479729731,1.5388000000000002,1.80826124,,,23
FeNiP,half,mp-1043103,MgFeNiP2O9,-2.2883389628061224,-7.379906709821428,0.21689999999999987,2.21172368,,,23
FeNiAs,half,mp-1080824,FeNiAs,-0.12250212583333327,-6.429262266666666,0.0,7.97508306,,,23
FeNiAs,half,mp-1224728,Fe(NiAs)2,-0.15066083966666685,-6.024768766666667,0.0,6.28473504,,,23
FeNiAs,half,mp-1224951,FeNiAs4,-0.25122920166666657,-5.739670538333332,0.0,6.61935191,,,23
FeNiSb,half,mp-1233872,MgFe3Ni2Sb(PO4)6,-2.2513381119691114,-7.496661861621622,0.13680000000000003,3.08808173,,,23
FeNiSb,half,mp-1233991,MgFe3Ni2Sb(PO4)6,-2.2906878638610038,-7.536011613513514,1.5014000000000003,2.92293884,,,23
FeNiSb,half,mp-1233545,MgFe3Ni2Sb(PO4)6,-2.2626760303474898,-7.5079997800000005,0.8784000000000001,3.12317812,,,23
MnTiAl,half,mp-865531,TiMn2Al,-0.3357596597988515,-7.8270342675,0.0,6.89372406,159.093,0.278,14
MnTiAl,half,mp-999052,Ti2MnAl,-0.2500238361494258,-7.424667625,0.05109999999999992,6.55356653,108.188,0.278,14
MnTiAl,half,mp-1216913,TiMnAl,-0.3031040837547903,-7.23746513,0.0,6.77213907,,,14
MnTiGa,half,mp-1097280,Ti2MnGa,2.839763494475574,-4.1555103425,0.0,-2.87573519,,,14
MnTiGa,half,mp-1064731,Ti2MnGa,-0.26526617052442614,-7.2605400075,0.05250000000000021,5.94742071,,,14
MnTiGa,half,mp-865780,TiMn2Ga,-0.23709498417385078,-7.54899964,0.0,5.97030952,160.207,0.294,14
MnTiSi,half,mp-1214713,Ba2TiMn2Si2PO13,-3.0530426645875366,-8.324614591190477,0.0,2.58599349,,,15
MnTiSi,half,mp-1221189,Na5Ca7Zr2TiMnSi8(O8F)4,-3.2549660831360154,-7.661992930666667,0.17900000000000005,1.688134,,,15
MnTiSi,half,mp-1216867,TiMnSi4,-0.3545873135440611,-6.814383885,0.0,9.9687717,,,15
MnTiGe,half,mp-1106030,TiMnGe,-0.49917704042145616,-7.726022095,0.0,5.98442338,,,15
MnTiGe,half,mp-866376,TiMn2Ge,-0.3401090560488518,-8.05074667,0.0,7.38779474,191.642,0.306,15
MnTiGe,half,mp-1018015,Ti2MnGe,-0.24415239989942616,-7.638159195,0.0,7.64880722,140.634,0.391,15
MnTiSn,half,mp-999083,Ti2MnSn,-0.14465159989942578,-7.385294395,0.0,8.04529111,53.25,-4.207,15
MnTiSn,half,mp-776007,Ti3Mn2Sn(PO4)6,-2.78643846635331,-8.268862049166666,0.09860000000000024,4.70829579,,,15
MnTiSn,half,mp-1217085,TiMn(Ni2Sn)2,-0.29096289265804565,-6.31561261,0.0,9.10892546,,,15
MnTiP,half,mp-771693,TiMn5(PO4)6,-2.5449076441901557,-8.24081706,0.0,1.81827033,,,16
MnTiP,half,mp-1214713,Ba2TiMn2Si2PO13,-3.0530426645875366,-8.324614591190477,0.0,2.58599349,,,16
MnTiP,half,mp-780178,Li8TiMn3(PO4)6,-2.664323082182149,-7.473849065952382,1.392,1.95826946,,,16
MnTiAs,half,mp-1205741,TiMnAs,-0.6500703595881229,-7.8926136399999995,0.0,7.68296318,,,16
MnTiAs,half,mp-1079806,TiMnAs,-0.3923010440325672,-7.634844324444444,0.0,6.36550844,,,16
MnTiAs,half,mp-1216856,TiMn2VAs4,-0.4246911848994266,-7.172681035,0.0,6.04169889,,,16