compound,heusler_type,mp_id,formula,formation_energy,absolute_energy,band_gap,fermi_energy,bulk_modulus,poisson_ratio,Nv
Ni2MnGa,full,mp-604537,MnGaNi2,-0.4199929756206899,-12.942379212,0.0,6.79524654,,,30
Ni2MnGa,full,mp-1206407,Mn2GaNi,-0.18017857571120643,-13.377969190969829,0.0,5.76556051,,,30
Ni2MnGa,full,mp-1222026,Mn2GaNi,-0.23277269974137837,-13.430563315,0.0,5.88627765,,,30
Ni2MnIn,full,mp-22731,MnInNi2,-0.24933087744252802,-15.555670721321839,0.0,7.9551134,235.971,0.332,30
Ni2MnIn,full,mp-1188474,MnIn2NiO6,-1.7550423002931033,-6.7683708465,0.0,6.13868261,,,30
Ni2MnSi,full,mp-567353,MnSiNi,-0.33978462149425565,-12.15272343166667,0.0,8.94912829,,,31
Ni2MnSi,full,mp-1210618,Mn3SiNi,-0.3072993389612037,-13.26839649527155,0.0,8.12955273,,,31
Ni2MnSi,full,mp-20949,MnSiNi,-0.573282222327587,-12.386221032500002,0.0,8.5004566,162.799,0.274,31
Ni2MnGe,full,mp-22029,MnNi2Ge,-0.22366996823275898,-6.559999095,0.0,8.10774923,160.744,0.414,31
Ni2MnGe,full,mp-583202,MnNiGe,0.06375223735632218,-6.457974371666666,0.0,7.622324,,,31
Ni2MnGe,full,mp-21090,MnNiGe,-0.22892120764367738,-6.750647816666667,0.0,7.58967499,116.642,0.292,31
Ni2MnSn,full,mp-1221649,MnCoNiSn,-0.10784307073275912,-6.6291282075,0.0,8.32156153,,,31
Ni2MnSn,full,mp-1221332,MnNiSnPd,-0.250402450732758,-6.28330386,0.0,7.87405047,,,31
Ni2MnSn,full,mp-1221827,Mn3Ni4Sn,-0.0964245698491375,-6.92344512625,0.0,7.69369847,,,31
Ni2MnP,full,mp-773507,MnNi(PO4)2,-2.151535122823617,-7.600802523055555,0.0,1.1258684,,,32
Ni2MnP,full,mp-780130,Mn3Cu2Ni(PO4)6,-2.1223373961569507,-7.478219795833334,0.0,1.52447575,,,32
Ni2MnP,full,mp-1043125,CaMnNiP2O9,-2.504297444086909,-7.67208833017857,0.02619999999999978,2.44903685,,,32
Ni2MnAs,full,mp-1103634,MnNiAs,-0.24535913097701112,-6.782783965833333,0.0,7.56659222,,,32
Ni2MnAs,full,mp-1079845,MnNiAs,-0.2528805040325671,-6.7903053388888885,0.0,7.18998564,,,32
Ni2MnAs,full,mp-510613,MnNiAs,3.540748798189655,-2.996676036666667,0.0,-2.22140227,,,32
Ni2MnSb,full,mp-776222,Mn2Ni3Sb(PO4)6,-2.1898103689922,-7.499271823333334,0.0,1.41257122,,,32
Ni2MnSb,full,mp-22541,MnNiSb,-0.10632490149424949,-17.563447423333333,0.0,7.09919181,98.538,0.497,32
Ni2MnSb,full,mp-5124,MnNi2Sb,-0.2664577769540202,-16.354728958333332,0.0,9.37081215,137.829,0.434,32
Rh2TiAl,full,mp-866153,TiAlRh2,-0.9830098508333336,-7.5754307475000005,0.0,8.01301471,194.292,0.551,25
Rh2TiAl,full,mp-1194450,Ti6Al16Rh7,-0.7392818303448282,-6.216948053448276,0.0,7.30201742,,,25
Rh2TiAl,full,mp-1217136,Ti8Al15Rh7,-0.7718418018888874,-6.468432757666665,0.0,7.39068862,,,25
Rh2TiGa,full,mp-567679,TiGaRh,-0.16754120694444433,-6.26350651,0.0,4.68621765,127.691,0.666,25
Rh2TiGa,full,mp-866157,TiGaRh2,-0.8438889402083269,-7.256939884999994,0.0,7.11664792,193.396,0.776,25
Rh2TiGa,full,mp-1193834,Ti6Ga16Rh7,-0.5474992903448281,-5.6293145851724145,0.0,5.27841848,,,25
Rh2TiIn,full,mp-866170,TiInRh2,-0.6416888299999997,-6.987509205,0.0,8.35398611,174.523,-0.516,25
Rh2TiIn,full,mp-11073,Ti3In3Rh2,-0.45657269999999883,-6.2931493275,0.0,7.89845481,123.289,0.299,25
Rh2TiSi,full,mp-672645,TiSiRh,-0.9466052852777752,-7.84164459083333,0.0,7.74143279,187.886,0.295,26
Rh2TiGe,full,mp-1208205,TiGeRh,-0.7800290711111096,-7.4076383183333325,0.0,7.35087202,,,26
Rh2TiGe,full,mp-1093752,TiGeRh2,2.0445452104166666,-4.7672386925,0.0,-3.47216427,,,26
Rh2TiGe,full,mp-1187497,TiGeRh2,-0.6619620020833334,-7.473745905,0.0,8.07777608,,,26
Rh2TiSn,full,mp-1206684,TiSnRh,-0.11759556277777723,-6.540719476666666,0.0,6.41058906,,,26
Rh2TiSn,full,mp-1216641,TiSnRh,-0.5513264027777751,-6.9744503166666645,0.0,6.62252043,,,26
Rh2TiSn,full,mp-865707,TiSnRh2,-0.6565809620833329,-7.315000865,0.0,8.65625398,179.322,0.711,26
Rh2TiAs,full,mp-961718,TiAsRh,-0.42897138694444453,-7.07227886,0.0,5.79307506,128.349,0.53,27
Rh2TiAs,full,mp-505540,TiAsRh,-0.8726296427777788,-7.515937115833334,0.0,7.58630633,176.642,0.311,27
Rh2TiSb,full,mp-1206908,TiSbRh,-0.3375654511111108,-6.80049916,0.0,6.79826425,,,27
Rh2TiSb,full,mp-16687,Ti5Sb2Rh,-0.5150107220833338,-7.40248202625,0.0,7.63382948,,,27
Rh2VSi,full,mp-1100414,VSiRh,-0.5716531722672684,-16.23817615726727,0.24910000000000032,6.32101666,,,27
Rh2VGe,full,mp-1100423,VGeRh,-0.07689229500000039,-7.10063956,0.0,5.94619693,,,27
Rh2VSn,full,mp-1100421,VSnRh,-0.2764537216666672,-7.095715653333333,0.39449999999999985,6.7272872,,,27
Rh2VSn,full,mp-1178762,VSnRh2,-0.34401666624999905,-7.2995400825,0.0,8.22640403,,,27
Rh2VSn,full,mp-669918,VSnRh2,-0.41370266124999855,-7.3692260775,0.0,8.35323757,187.018,0.317,27
Rh2VAs,full,mp-20395,VAsRh,-0.5563890249999991,-18.200834140833333,0.0,7.52935516,183.377,0.317,28
Rh2VSb,full,mp-1100417,VSbRh,-0.28345853305555596,-21.594165229722222,0.0,7.60483028,,,28
Rh2CrGa,full,mp-1093844,CrGaRh2,2.378986508125,-4.4734533,0.0,-3.25646104,,,27
Rh2CrGa,full,mp-1183690,CrGaRh2,-0.38577897937499905,-7.238218787499999,0.0,6.28618145,,,27
Rh2CrGe,full,mp-961725,CrGeRh,-0.014577054999998987,-17.708426588333335,0.0,5.48504582,118.263,0.464,28
Rh2CrSn,full,mp-1018066,CrSnRh2,-0.2899011212499989,-7.3877098875,0.0,8.33723849,167.812,0.318,28
Rh2CrSn,full,mp-1093756,CrSnRh2,2.4553668037500005,-4.6424419625,0.48340000000000005,-3.57145827,,,28
Rh2CrSn,full,mp-1183708,CrSnRh2,-0.2723157137500003,-7.370124480000001,0.0,8.31048481,,,28
Rh2CrAs,full,mp-15683,CrAsRh,-0.32229516638889144,-18.294662502222224,0.0,6.8098099,,,29
Rh2MnAl,full,mp-1221702,MnAlRh2,-0.6533019769827586,-7.5623536925,0.0,7.03395356,,,28
Rh2MnAl,full,mp-10894,MnAlRh2,-0.6837400494827595,-7.592791765000001,0.0,6.91259405,185.161,0.282,28
Rh2MnGa,full,mp-1221872,Mn2GaRh,-0.15746423834051715,-7.3365728575,0.0,6.06573756,,,28
Rh2MnGa,full,mp-1221629,MnGaRh2,-0.4805085588577578,-7.2101903225,0.0,6.01837204,,,28
Rh2MnGa,full,mp-864949,MnGaRh2,-0.529181723857759,-7.258863487500001,0.0,5.86915377,188.351,0.302,28
Rh2MnIn,full,mp-1221572,MnInRh2,-0.5272590211206882,-21.9108546,0.0,7.35579142,,,28
Rh2MnIn,full,mp-864968,MnInRh2,-0.5538888461206888,-21.937484425,0.0,7.16070386,155.882,0.313,28
Rh2MnSi,full,mp-1014005,Mn2SiRh,-0.21753229692888,-15.7866979409375,0.0,7.24680279,134.27,0.361,29
Rh2MnSi,full,mp-22565,MnSiRh,-0.6455667795498053,-16.510009413055553,0.0,7.15874726,154.446,0.302,29
Rh2MnSi,full,mp-865015,MnSiRh2,-0.7764169798706888,-18.7088061125,0.0,8.12665064,208.501,0.45,29
Rh2MnGe,full,mp-18649,MnGeRh,-0.3704068826436797,-7.420190555000001,0.0,6.46976869,,,29
Rh2MnGe,full,mp-1079184,MnGeRh,-0.36635726931034657,-7.416140941666669,0.0,6.25117893,,,29
Rh2MnGe,full,mp-4664,MnGeRh2,-0.4380496432327581,-7.566464365,0.0,7.46566361,189.249,0.459,29
Rh2MnSn,full,mp-1221622,MnCoSnRh,-0.2502795532327582,-7.1676074875,0.0,7.8756234,,,29
Rh2MnSn,full,mp-1221328,MnNiSnRh,-0.2624275182327578,-6.8414354425,0.0,8.10547302,,,29
Rh2MnSn,full,mp-4990,MnSnRh2,-0.43506260573275757,-7.4101133274999995,0.0,8.10177043,169.635,0.392,29
Rh2MnP,full,mp-1079405,MnPRh,-0.5368423575246292,-7.850774586666666,0.0,8.628745,,,30
Rh2MnAs,full,mp-1221750,Mn3Co2As3Rh,-0.27665307847701115,-7.290825832222222,0.0,7.00927197,,,30
Rh2MnAs,full,mp-567856,MnAsRh,-0.3435513962547895,-7.409033294444445,0.0,6.89895501,147.225,0.338,30
Rh2MnAs,full,mp-1221966,Mn2CoAs2Rh,-0.2933791418103458,-7.320379181666667,0.0,6.97152298,,,30
Rh2MnSb,full,mp-568891,MnSbRh,-0.12036109219348153,-21.628987437365897,0.0,6.74757791,105.879,0.422,30
Rh2MnSb,full,mp-4846,MnSbRh,-0.32712301886014455,-21.835749364032562,0.0,6.63180118,112.852,0.374,30
Rh2MnSb,full,mp-568983,MnSbRh,-0.13456268886014774,-21.643189034032563,0.0,6.90758289,104.921,0.456,30
Rh2FeAl,full,mp-1096451,Al2FeRh,2.2435961300000007,-3.587774055,0.037799999999999834,-2.57748175,,,29
Rh2FeAl,full,mp-1261855,Al2FeRh,2.2467125075000007,-3.5846576775,0.01739999999999986,-2.5916946,,,29
Rh2FeAl,full,mp-1183147,Al2FeRh,-0.6965394949999988,-6.52790968,0.0,8.44486,,,29
Rh2FeGa,full,mp-865170,GaFeRh2,-0.42948686937499936,-6.9861701125,0.0,6.31561503,193.286,0.559,29
Rh2FeIn,full,mp-1184829,InFeRh2,-0.21194192166666603,-6.701394595,0.0,7.55203716,,,29
Rh2FeIn,full,mp-1096551,InFeRh2,2.435794828333334,-4.053657845,0.0,-3.46000587,,,29
Rh2FeSi,full,mp-1222890,LaFeSi2Rh,-0.8092320289999997,-7.133426478,0.0,8.28926991,,,30
Rh2FeSi,full,mp-1227116,CaFeSi2Rh,-0.6734796739999993,-6.411592678,0.0,6.20774692,,,30
Rh2FeSn,full,mp-1097141,FeSnRh2,2.495548781250001,-4.30650342,0.23740000000000006,-3.64659018,,,30
Rh2FeSn,full,mp-1018062,FeSnRh2,-0.3010237187499989,-7.10307592,0.0,8.06208925,177.299,0.329,30
Rh2FeSn,full,mp-1184221,FeSnRh2,-0.25857151124999866,-7.0606237125,0.0,8.17973067,,,30
Rh2FeP,full,mp-1224852,FePRh,-0.46039346043650653,-7.543660995555555,0.0,7.92527684,,,31
Rh2FeAs,full,mp-1225105,FeAsRh,-0.0751312780555548,-6.909948482222222,0.0,6.97853099,,,31
Rh2FeAs,full,mp-1225012,FeAsRh,-0.17150087361111113,-7.006318077777778,0.0,7.10737741,,,31
Rh2FeSb,full,mp-1206853,FeSbRh2,-0.22013650249999994,-7.05204605,0.0,8.47777733,,,31
Rh2CoAl,full,mp-1095887,Al2CoRh,2.155039567500001,-10.5536245375,0.07019999999999982,-2.69208294,,,30
Rh2CoAl,full,mp-1216888,U3Al3CoRh2,-0.5042670188888805,-36.22972182499999,0.0,9.44086721,,,30
Rh2CoGa,full,mp-1096441,Ga2CoRh,1.94248817625,-3.1959909825,0.0,-1.14182843,,,30
Rh2CoGa,full,mp-1097340,GaCoRh2,2.4902084481250006,-3.7323236725,0.0,-3.4975943,,,30
Rh2CoSi,full,mp-1225286,DyCoSi2Rh,-0.9199233243333318,-6.913270559999999,0.0,6.85706876,,,31
Rh2CoSi,full,mp-1226609,CeCoSi2Rh,-0.8620338939999982,-7.119095997999999,0.0,8.36718225,,,31
Rh2CoSn,full,mp-1221622,MnCoSnRh,-0.2502795532327582,-7.1676074875,0.0,7.8756234,,,31
Rh2CoSn,full,mp-1018085,CoSnRh2,-0.20586425374999973,-6.6737653325,0.0,7.92880616,185.482,0.336,31
Rh2CoAs,full,mp-1221750,Mn3Co2As3Rh,-0.27665307847701115,-7.290825832222222,0.0,7.00927197,,,32
Rh2CoAs,full,mp-1221966,Mn2CoAs2Rh,-0.2933791418103458,-7.320379181666667,0.0,6.97152298,,,32
Rh2CoAs,full,mp-22546,CoAsRh,-0.34624479055555923,-17.705575039722223,0.0,7.32345967,195.109,0.353,32
Rh2CoSb,full,mp-1224248,HfZrCoSb2Rh,0.003317784504768421,-26.110731967995232,0.0,5.4934535,,,32
Rh2CoSb,full,mp-1206379,CoSbRh2,-0.18431022687500231,-21.987561256875,0.0,8.39929858,,,32
Rh2NiAl,full,mp-1096379,AlNiRh2,2.531954207500002,-14.214613980000001,0.0,-3.7414859,,,31
Rh2NiGa,full,mp-866037,GaNiRh2,-0.3413840393750007,-6.225596150000001,0.0,6.37659956,173.642,0.335,31
Rh2NiGe,full,mp-1097160,NiGeRh2,2.4724027756249995,-16.059135224375,0.0,-3.86346918,,,32
Rh2NiSn,full,mp-1221328,MnNiSnRh,-0.2624275182327578,-6.8414354425,0.0,8.10547302,,,32
Rh2NiSn,full,mp-11519,NiSnRh2,-0.25160581124999837,-6.38118688,0.0,8.36733945,180.244,0.446,32
Rh2NiP,full,mp-1018823,NiPRh,-0.6905963176587306,-15.730603685,0.0,9.39988985,,,33
Rh2NiP,full,mp-1079265,NiPRh,-0.6289717476587321,-15.668979115,0.0,9.35377987,,,33
Rh2NiAs,full,mp-19768,NiAsRh,-0.4250174258333341,-17.366843018333334,0.0,7.98057303,,,33
Rh2NiAs,full,mp-1220148,NiAs2Rh3,-0.37904584666667535,-19.346623350833344,0.0,7.66777256,,,33
Cr2ScSi,full,mp-17334,Sc2Cr4Si5,-0.4484043540909087,-11.99014683090909,0.0,8.19634049,,,19
Cr2ScGe,full,mp-1197663,ScCrGe2,-0.4783469489583337,-6.786240020208333,0.0,5.30661192,,,19
Cr2ScGe,full,mp-1103749,Sc(CrGe)6,-0.19735913038461644,-7.273429980769231,0.0,6.19751496,,,19
Cr2ScGe,full,mp-1219675,Sc7Cr5Ge9,-0.539653753333332,-6.930119076190476,0.0,5.25902112,,,19
Cr2TiAl,full,mp-1217088,TiAlCr,-0.20664084972221985,-11.78770676083333,0.0,6.70845202,,,19
Cr2TiAl,full,mp-1217087,Ti2AlCr,-0.20894951833333408,-12.129188205,0.0,6.82442152,,,19
Cr2TiAl,full,mp-1217237,Ti2Al2CrCuS8,-1.312322159761905,-6.322412615,0.0,6.12802332,,,19
Cr2TiIn,full,mp-1217256,Ti2CrIn3O6,-1.654946391805554,-6.9412076475,0.0,6.47877638,,,19
Cr2TiSi,full,mp-1216927,TiCrSi4,-0.3502949727777794,-10.867987936666667,0.0,9.7452127,,,20
Cr2TiSi,full,mp-1217112,Ti2CrSi6,-0.40594569037037015,-10.804995022222222,0.0,9.59450536,,,20
Cr2TiSi,full,mp-1217270,Ti(CrSi3)2,-0.2970828429629633,-10.933419438888889,0.0,10.1468454,,,20
Cr2TiGe,full,mp-1192266,Ti4Cr2Ge5,-0.48185905575757526,-7.209422899545455,0.0,6.39250055,,,20
Cr2TiGe,full,mp-1217423,Ti4Cr2Ge5,-0.34239597893939333,-7.069959822727273,0.0,5.81708463,,,20
Cr2TiSn,full,mp-1101318,Ti3Cr2Sn(PO4)6,-2.7448914423015873,-8.254594590555556,0.0,4.43732413,,,20
Cr2TiSn,full,mp-776286,Ti3CrSn2(PO4)6,-2.7832646227182543,-8.136204559444444,0.025699999999999612,4.35087636,,,20
Cr2TiSn,full,mp-776780,Li4Ti3Cr3(SnO8)2,-2.660703811547619,-7.929870711428571,0.0,5.6721528,,,20
Cr2TiP,full,mp-774450,Ti3CrFe2(PO4)6,-2.782928289107143,-8.383670967777778,0.10719999999999974,4.10266156,,,21
Cr2TiP,full,mp-776286,Ti3CrSn2(PO4)6,-2.7832646227182543,-8.136204559444444,0.025699999999999612,4.35087636,,,21
Cr2TiP,full,mp-777498,Ti3CrNi2(PO4)6,-2.7314317721626984,-8.182736421388888,0.04949999999999921,4.35682972,,,21
Cr2TiAs,full,mp-1079641,TiCrAs,-0.584777569166666,-7.990998242222222,0.0,7.70122486,,,21
Cr2TiAs,full,mp-1216963,TiCrAs2,-0.5434949395833337,-7.2656910775,0.0,6.20119151,,,21
Cr2TiSb,full,mp-1216859,TiCrSbO6,-2.5683668062037017,-8.278491590833333,1.6451000000000002,4.27554779,,,21
Cr2TiSb,full,mp-774372,Ti3Cr2Sb(PO4)6,-2.7102993702182516,-8.223320001388888,0.0,4.02664515,,,21
Cr2TiSb,full,mp-758653,Li4Ti3Cr3(SbO8)2,-2.605193611904762,-7.882891182142857,0.0,4.65571319,,,21
CoTiP,half,mp-770585,Li2TiCo3(PO4)6,-2.2828859207738086,-7.406795876388888,0.0,0.57061929,,,18
CoTiP,half,mp-1044256,TiZnCo(PO4)3,-2.4959660229034384,-7.6049792225,1.0791000000000002,1.31127375,,,18
CoTiP,half,mp-1102138,TiCoP,-1.1224449157142875,-12.847133067500002,0.0,8.68341051,,,18
CoTiAs,half,mp-961700,TiCoAs,-0.1457170144444445,-6.70002642,0.0,5.32355923,74.991,0.652,18
CoTiAs,half,mp-998974,TiFeCoAs,-0.36153024520833377,-7.403793365,0.0,8.13994071,187.342,0.371,18
CoTiAs,half,mp-732284,Li2Ti4Co(AsO5)4,-2.4567174959677422,-7.626362499193549,2.7286,1.47105488,,,18
CoTiSb,half,mp-759100,Ti3Co2Sb(PO4)6,-2.640629530496031,-8.013670675555556,0.0,3.23608969,,,18
CoTiSb,half,mp-998973,TiFeCoSb,-0.3517762133333333,-7.25875901,0.0,8.91973031,170.979,0.323,18
CoTiSb,half,mp-5967,TiCoSb,-0.6587187822222234,-17.95148674,1.0431999999999997,7.3977234,141.018,0.276,18
CoVAl,half,mp-1008530,AlVFeCo,-0.3942140649999999,-7.5024440225,0.0,7.29932501,204.053,0.321,17
CoVAl,half,mp-4955,AlVCo2,-0.44793970249999937,-12.2704737825,0.0,7.01778873,195.177,0.279,17
CoVAl,half,mp-1228974,AlVCo,-0.11077845333333158,-11.462746849999997,0.0,7.08816253,,,17
CoVGa,half,mp-1190398,MnVGaCo,-0.3008021957327589,-7.402660721875,0.0,6.17859307,,,17
CoVGa,half,mp-22790,VGaCo2,-0.3272709574999997,-13.3274744425,0.0,6.00999522,199.274,0.307,17
CoVGa,half,mp-1066581,VGaFeCo,-0.2710866093750006,-7.199946615,0.0,6.27583557,,,17
CoVSi,half,mp-20586,VCo2Si,-0.38121340276041593,-12.714164049010417,0.0,8.38538849,216.418,0.31,18
CoVSi,half,mp-21371,VCoSi,-0.5443772966666695,-12.576901115,0.0,7.71164416,216.773,0.277,18
CoVSi,half,mp-1221599,MnV(Co2Si)2,-0.4188975497413798,-7.6226755875,0.0,8.15936838,,,18
CoVGe,half,mp-865465,VCo2Ge,-0.2327124612500011,-7.2261543025,0.0,6.74955103,197.789,0.318,18
CoVGe,half,mp-1063914,VFeCoGe,-0.25128076624999984,-7.57887373,0.0,7.59230954,,,18
CoVGe,half,mp-1103555,VCoGe,-0.3113451033333341,-7.249762343333334,0.0,5.90122539,,,18
CoVSn,half,mp-21469,VCo2Sn,-0.07959901875000064,-6.91967686,0.0,8.47176094,178.311,0.324,18
CoVSn,half,mp-1018119,VCoSn,0.4650513416666655,-6.2772468733333335,0.0,6.40433844,105.185,0.873,18
CoVSn,half,mp-1234442,MgV3CoSn2(PO4)6,-2.3982727768339758,-7.678865186216216,0.025399999999999867,2.17358751,,,18
CoVP,half,mp-757057,VCo3(PO4)4,-2.1139013386904764,-7.588162584166667,0.0,2.05654987,,,19
CoVP,half,mp-766565,Li12VCo3P4(CO7)4,-2.3193618543956047,-7.1391920646153855,0.7799000000000005,3.56030595,,,19
CoVP,half,mp-1101319,VCo(PO4)2,-2.335889557440475,-7.8914211925,9.999999999998899e-05,1.99808767,,,19
CoVAs,half,mp-1216438,VCo3AsO8,-1.7196266548076902,-7.471348850384614,0.0,3.8092611,,,19
CoVAs,half,mp-1208112,V3Co10AsO20,-1.6507065636029414,-7.600744281029413,1.5644,2.80564789,,,19
CoVAs,half,mp-1066006,VFeCoAs,-0.09063114187500076,-7.429997775,0.0,7.99690028,,,19
CoVSb,half,mp-1066862,VFeCoSb,-0.0638935974999999,-7.2679799075,0.0,9.05727655,,,19
CoVSb,half,mp-1216413,VCoSb,0.3385867019444433,-17.338120828055555,0.0,8.73214801,,,19
CoVSb,half,mp-4076,VCoSb,-0.18939748999999986,-17.86610502,0.0,8.02623499,141.89,0.328,19
CoCrAl,half,mp-10883,AlCrCo2,-0.22062925874999806,-12.289105003749999,0.0,7.02384325,199.303,0.292,18
CoCrAl,half,mp-1228949,Al2CrFeCo4,-0.2920568399999999,-7.0605427425,0.0,6.94851754,,,18
CoCrGa,half,mp-567981,CrGaCo2,-0.07622638124999881,-13.322371531249999,0.0,5.90754892,199.836,0.327,18
CoCrGa,half,mp-1226165,Cr12Ga2(CoS8)3,-0.9210596318292676,-6.838465521219513,0.0,4.81269196,,,18
CoCrGa,half,mp-1226347,CrGa3(CoSe4)2,-0.5635476736607136,-4.918652016428571,0.0,2.97853987,,,18
CoCrIn,half,mp-1226318,Cr3In(CoS4)2,-0.7661046604761899,-6.4155350985714295,0.0,4.82156505,,,18
CoCrIn,half,mp-1226298,CrInCoS4,-0.7245873680952377,-5.881598254285715,0.0,4.94870372,,,18
CoCrIn,half,mp-16735,CrInCo2,0.1976137877083346,-15.832484969791665,0.0,7.4804662,169.302,0.341,18
CoCrSi,half,mp-1213726,CrFeCoSi,-0.26834161249999866,-7.938792469999999,0.0,8.37528824,,,19
CoCrSi,half,mp-1095673,CrCoSi,-0.24880192527777942,-12.60924796361111,0.0,7.97811093,,,19
CoCrSi,half,mp-1221846,Mn4Cr(Co2Si)5,-0.40023366108620734,-7.638326960500001,0.0,7.90652143,,,19
CoCrGe,half,mp-1183740,CrCo2Ge,-0.11422048125000028,-7.2499476725,0.0,7.45453407,,,19
CoCrGe,half,mp-10394,CrCoGe,-0.07916975833333358,-7.215667106666667,0.0,7.5312468,183.828,0.322,19
CoCrGe,half,mp-1222067,Mn4Cr(Co2Ge)5,-0.22292983133620653,-7.260450586999999,0.0,6.36471465,,,19
CoCrSn,half,mp-778219,Li4Cr3Co3(SnO8)2,-1.969554920833333,-7.157070896071429,0.0,3.65749089,,,19
CoCrSn,half,mp-1177516,Li4Cr3Co3(SnO8)2,-1.9477848894047614,-7.135300864642857,0.07759999999999989,2.76651176,,,19
CoCrSn,half,mp-774701,Li4Cr3Co2Sn3O16,-1.965901049940476,-7.0418511371428565,0.0867,3.34066603,,,19
CoCrP,half,mp-757284,Mn3CrCo2(PO4)6,-2.28545116504584,-7.917481645,0.0,2.02008157,,,20
CoCrP,half,mp-776777,Li4CrCo2Ni3(PO4)6,-2.275351350029762,-7.281430172750001,2.9872,1.77947624,,,20
CoCrP,half,mp-757257,Li4CrCo3(PO4)4,-2.413452291496598,-7.398705961428571,0.8765000000000001,4.13416871,,,20
CoCrAs,half,mp-1206397,CrCoAs,-0.2284141480555522,-14.56678231722222,0.0,7.14405663,,,20
CoCrAs,half,mp-1008277,CrCo2As,-0.038139368124998185,-14.100473277499999,0.0,7.40768899,187.113,0.32,20
CoCrAs,half,mp-694249,Cr3Co2As2(CO)20,-0.7451330297872336,-7.898001225851063,1.7069999999999999,-0.63325998,,,20
CoCrSb,half,mp-1018082,CrCo2Sb,0.07108677958333232,-16.74094331541667,0.0,8.46626634,173.777,0.295,20
CoCrSb,half,mp-1226307,CrCo4SbO8,-1.6675647385714285,-7.519980836428571,0.9511000000000003,4.25540112,,,20
CoCrSb,half,mp-757879,Cr3Co3(SbO8)2,-1.6164263941666672,-7.360327002916667,0.0,3.4472296,,,20
CoMnAl,half,mp-1221633,MnAlFeCo,-0.2483681319827591,-7.376125395,0.0,6.86531309,,,19
CoMnAl,half,mp-13079,Mn2AlCo,-0.2726304239655173,-7.5733862075,0.0,6.75159189,158.934,0.234,19
CoMnAl,half,mp-3623,MnAlCo2,-0.35664687448275867,-7.150253015,0.0,6.61087155,188.169,0.269,19
CoMnGa,half,mp-1222096,Mn2GaCo4Ge,-0.24967310854525948,-7.06327577625,0.0,6.31030204,,,19
CoMnGa,half,mp-1190398,MnVGaCo,-0.3008021957327589,-7.402660721875,0.0,6.17859307,,,19
CoMnGa,half,mp-21171,MnGaCo2,-0.23019723135775827,-6.84443342,0.0,5.49199171,186.181,0.3,19
CoMnIn,half,mp-22276,Mn2InCo,0.21448128936781607,-6.8396739725,0.0,6.56020587,135.295,0.377,19
CoMnSi,half,mp-961696,MnCoSi,-0.177972692643678,-7.418222706666666,0.0,6.76714626,181.264,0.324,20
CoMnSi,half,mp-10365,MnCoSi,-0.02012916764367863,-7.260379181666667,0.0,8.52057738,,,20
CoMnSi,half,mp-13082,Mn2CoSi,-0.3452583739655175,-8.0659497075,0.0,8.12336178,220.339,0.306,20
CoMnGe,half,mp-1222096,Mn2GaCo4Ge,-0.24967310854525948,-7.06327577625,0.0,6.31030204,,,20
CoMnGe,half,mp-1222109,Mn2Co2SiGe,-0.31841297014367836,-7.424947955,0.0,6.86103364,,,20