compound,heusler_type,mp_id,formula,formation_energy,absolute_energy,band_gap,fermi_energy,bulk_modulus,poisson_ratio,Nv
Fe2TiGe,full,mp-1208403,TiFeGe,-0.541334449444444,-7.53751481,0.0,6.04784269,,,24
Fe2TiGe,full,mp-1018012,TiFeCoGe,-0.46164263208333356,-7.4921320825,0.0,7.8080298,197.425,0.336,24
Fe2TiSn,full,mp-19963,TiFe2Sn,-0.2695724920833342,-7.480849065000001,0.04870000000000019,8.82910951,183.277,0.253,24
Fe2TiSn,full,mp-22589,TiFeSn,0.4075125338888898,-6.384182493333333,0.0,5.41437945,73.93,0.529,24
Fe2TiSn,full,mp-1101366,Ti3Fe2Sn(PO4)6,-2.716767801190476,-8.160747268333333,0.07749999999999968,4.38323043,,,24
Fe2TiP,full,mp-1101312,TiCr2Fe3(PO4)6,-2.502818591699736,-8.168341399444445,0.0,2.67367452,,,25
Fe2TiP,full,mp-775272,TiFe3(PO4)6,-2.2980111647408954,-7.728973698235294,0.0,-0.50752441,,,25
Fe2TiP,full,mp-694979,Na2TiFe(PO4)3,-2.715343641316869,-7.700740485,2.3154000000000003,1.1967684,,,25
Fe2TiAs,full,mp-998974,TiFeCoAs,-0.36153024520833377,-7.403793365,0.0,8.13994071,187.342,0.371,25
Fe2TiAs,full,mp-999002,TiFe2As,-0.3295779777083334,-7.70599222,0.0,8.34327144,207.251,0.165,25
Fe2TiAs,full,mp-1095148,TiFeAs,-0.6694037936111132,-7.6812823800000025,0.0,7.49497804,,,25
Fe2TiSb,full,mp-998970,TiFe2Sb,-0.29650233083333344,-7.53763625,0.0,9.19493491,187.429,0.429,25
Fe2TiSb,full,mp-778503,Ti3Fe2Sb(PO4)6,-2.701930821051586,-8.14922777111111,0.028900000000000148,4.02785,,,25
Fe2TiSb,full,mp-998973,TiFeCoSb,-0.3517762133333333,-7.25875901,0.0,8.91973031,170.979,0.323,25
Fe2VAl,full,mp-1228827,AlV2Fe,-0.13389215249999964,-7.7297444475,0.0,6.59501668,,,24
Fe2VAl,full,mp-1008530,AlVFeCo,-0.3942140649999999,-7.5024440225,0.0,7.29932501,204.053,0.321,24
Fe2VAl,full,mp-1228804,AlVFe2,-0.13865449499999905,-7.581035575,0.0,6.64874373,,,24
Fe2VGa,full,mp-21883,VGaFe2,-0.29842107687499997,-7.561432205,0.0,6.4687618,222.851,0.267,24
Fe2VGa,full,mp-1216782,V2GaFe,-0.08609541687500144,-7.50257776,0.0,5.90383719,,,24
Fe2VGa,full,mp-1066581,VGaFeCo,-0.2710866093750006,-7.199946615,0.0,6.27583557,,,24
Fe2VSi,full,mp-1216327,VFe3Si4,-0.41396887750000033,-7.438374105,0.0,9.24603471,,,25
Fe2VSi,full,mp-1221563,MnV(Fe2Si)2,-0.4174628259913806,-8.289543108750001,0.0,8.40838232,,,25
Fe2VSi,full,mp-1066609,VFeCoSi,-0.4481346049999999,-7.9763001125,0.0,8.17728606,,,25
Fe2VGe,full,mp-1063914,VFeCoGe,-0.25128076624999984,-7.57887373,0.0,7.59230954,,,25
Fe2VGe,full,mp-1216977,V2FeGe,-0.29935772375,-8.114573025,0.0,7.42464867,,,25
Fe2VSn,full,mp-774750,V2Fe3Sn(PO4)6,-2.419798567301586,-7.9457601816666665,0.0,2.55488474,,,25
Fe2VSn,full,mp-636359,VFe2Sn,0.00271265875000104,-7.5056674275,0.0,8.85256522,,,25
Fe2VSn,full,mp-1216897,V2FeSn,-0.015350104999999559,-7.67720140625,0.0,7.73663023,,,25
Fe2VP,full,mp-2224790,MgVFeP2(O4F)2,-2.6986413246190466,-7.5957354619999995,1.6196000000000002,2.14695329,,,26
Fe2VP,full,mp-1177777,Li2VFeP2(HO5)2,-2.359135896025132,-7.276674238611111,1.7599,2.43203955,,,26
Fe2VP,full,mp-782634,VFe5(PO4)6,-2.3645705696626984,-7.997381197777778,1.3117000000000003,1.76667528,,,26
Fe2VAs,full,mp-1095040,VFeAs,-0.326053271666666,-7.7304018333333335,0.0,7.51551559,,,26
Fe2VAs,full,mp-1106248,Sr2VFeAsO3,-2.0277087993749987,-7.085920944374999,0.0,3.8502607,,,26
Fe2VAs,full,mp-1066006,VFeCoAs,-0.09063114187500076,-7.429997775,0.0,7.99690028,,,26
Fe2VSb,full,mp-1216330,VFeSbO6,-2.05603772,-7.766761148333334,0.2019000000000002,4.44499131,,,26
Fe2VSb,full,mp-567636,VFeSb,-0.2752190966666663,-7.502861936666666,0.3487,7.5395165,162.865,0.336,26
Fe2VSb,full,mp-774608,V3Fe2Sb(PO4)6,-2.460163840496032,-8.006495295,0.0,3.50098476,,,26
Fe2CrAl,full,mp-1228906,AlCrFe2,-0.15702917999999944,-7.74169561,0.0,7.63812097,,,25
Fe2CrAl,full,mp-1096119,Al2CrFe,2.4711119100000007,-3.932443175,0.0,-2.38772398,,,25
Fe2CrAl,full,mp-1229097,AlCrFeO4,-2.540379124999999,-8.494336182142858,1.4767000000000001,5.22066652,,,25
Fe2CrGa,full,mp-1226345,Cr3GaFe3As2,-0.018372544722222668,-7.433655558888889,0.0,6.29345241,,,25
Fe2CrGa,full,mp-30570,CrGaFe2,-0.027434201874998898,-7.43273068,0.0,6.39980137,204.598,0.28,25
Fe2CrGa,full,mp-1226233,CrGaFeSe4,-0.6365560995535711,-5.655814758571428,0.0,3.45763327,,,25
Fe2CrSi,full,mp-1213726,CrFeCoSi,-0.26834161249999866,-7.938792469999999,0.0,8.37528824,,,26
Fe2CrSi,full,mp-1226256,CrFeSi2,-0.3469316849999995,-7.59035787,0.0,9.30176412,,,26
Fe2CrSi,full,mp-1226343,CrFe11Si4,-0.2813790049999998,-8.06416356125,0.0,8.14462458,,,26
Fe2CrGe,full,mp-1226425,Cr3Fe3GeAs2,-0.06602189666666586,-7.658519558888888,0.0,7.10009447,,,26
Fe2CrGe,full,mp-1226385,CrFeGe2,-0.029818414999999376,-6.8720995125,0.0,7.7720566,,,26
Fe2CrSn,full,mp-1178427,Cr2Fe3Sn(PO4)6,-2.3744344967460314,-7.932015077777779,0.029199999999999893,3.40123785,,,26
Fe2CrSn,full,mp-1008226,CrFe2Sn,0.2543460687500003,-7.3963193675,0.0,8.22928574,143.331,0.427,26
Fe2CrSn,full,mp-775073,Li4Cr3Fe3(SnO8)2,-2.0715633326190477,-7.4022869317857145,0.0,3.10205876,,,26
Fe2CrP,full,mp-774450,Ti3CrFe2(PO4)6,-2.782928289107143,-8.383670967777778,0.10719999999999974,4.10266156,,,27
Fe2CrP,full,mp-777476,CrFe2(PO4)3,-2.3767023991071414,-8.05818435111111,1.6569,1.55372473,,,27
Fe2CrP,full,mp-766014,Li6CrFe3(PO4)6,-2.5003482901964267,-7.446943759999999,2.3823,1.40557525,,,27
Fe2CrAs,full,mp-1206083,CrFeAs,-0.0935419624999996,-7.6912723666666665,0.0,7.26749288,,,27
Fe2CrAs,full,mp-1189319,Sr2CrFeAsO3,-1.9697830406249999,-7.099137860625,0.0,3.85510842,,,27
Fe2CrAs,full,mp-1226345,Cr3GaFe3As2,-0.018372544722222668,-7.433655558888889,0.0,6.29345241,,,27
Fe2CrSb,full,mp-1222836,Li2Cr2FeSbO8,-2.1847588233333326,-7.566264030714286,1.891,3.35563923,,,27
Fe2CrSb,full,mp-861530,Li2Cr2FeSbO8,-2.1824709485119036,-7.563976155892857,1.6540999999999997,5.27516759,,,27
Fe2CrSb,full,mp-1008225,CrFe2Sb,0.14062806500000047,-7.5398947175,0.0,8.90062077,187.126,4.053,27
Fe2MnAl,full,mp-1221633,MnAlFeCo,-0.2483681319827591,-7.376125395,0.0,6.86531309,,,26
Fe2MnAl,full,mp-1221620,MnAlFe2,-0.133765804482759,-7.59567419,0.0,6.25488988,,,26
Fe2MnAl,full,mp-31185,MnAlFe2,-0.19067050448275857,-7.65257889,0.0,6.98928397,204.228,0.235,26
Fe2MnGa,full,mp-1097314,MnGaFe2,2.6305809061422414,-4.6519575275,0.0,-2.6817609,,,26
Fe2MnGa,full,mp-1065753,MnGaFe2,-0.0768241663577589,-7.3593626,0.0,5.41165966,,,26
Fe2MnGa,full,mp-999552,MnGaFeCo,-0.12804293135775868,-7.0764302425,0.0,5.75671261,,,26
Fe2MnIn,full,mp-651406,MnInFe(CO)9,-0.6849406153975088,-7.7334917192261905,2.1518,0.30871252,,,26
Fe2MnIn,full,mp-1221611,MnInFe,0.3001349451340995,-6.496935136666667,0.0,7.55058451,,,26
Fe2MnIn,full,mp-1206457,MnInFe,0.2928296784674333,-6.504240403333333,0.0,6.63873187,,,26
Fe2MnSi,full,mp-1222097,Mn4Fe8SiGe3,-0.1602262791702591,-7.891640806875,0.0,7.70709251,,,27
Fe2MnSi,full,mp-5529,MnFe2Si,-0.3191894194827585,-8.201033355,0.0,8.05121851,237.181,0.452,27
Fe2MnSi,full,mp-1105397,MnFe4SiB2,-0.35925516078304653,-8.08753037375,0.0,7.43223956,,,27
Fe2MnGe,full,mp-1018071,MnFe2Ge,-0.11001521823275873,-7.79128661,0.0,7.47807372,213.562,0.46,27
Fe2MnGe,full,mp-1018024,MnFeCoGe,-0.1729985207327589,-7.52011879,0.0,7.23491723,205.404,0.312,27
Fe2MnGe,full,mp-1093841,MnFe2Ge,2.708829624267241,-4.9724417675,0.0,-2.66605456,,,27
Fe2MnSn,full,mp-1177457,Li4Mn2Fe3Sn(PO4)6,-2.431710311551312,-7.599873512249999,2.5061,2.15743078,,,27
Fe2MnSn,full,mp-850538,Mn2Fe3Sn(PO4)6,-2.382684559964422,-7.912985575555556,0.0,1.34580578,,,27
Fe2MnSn,full,mp-776652,Mn3Fe2Sn(PO4)6,-2.3460430396291727,-7.895566113055556,0.0,2.36721548,,,27
Fe2MnP,full,mp-760077,MnFeCo(PO4)3,-2.25167672885331,-7.831623310416666,0.5024,2.12242092,,,28
Fe2MnP,full,mp-1176481,MnFeCo(PO4)3,-2.256216780381089,-7.836163361944445,0.001000000000000112,1.70191218,,,28
Fe2MnP,full,mp-1201180,MnFe2(PO8)2,-1.1351766270103207,-6.667044451904762,0.0,-0.82967055,,,28
Fe2MnAs,full,mp-4238,MnFeAs,-0.19520789181034737,-7.629260903333336,0.0,7.25146101,159.384,0.298,28
Fe2MnAs,full,mp-505803,MnFeAs,-0.13832129014367922,-7.572374301666667,0.0,6.37665682,114.365,0.34,28
Fe2MnAs,full,mp-1221780,Mn3FeAs4,-0.24803312797413835,-7.07210071625,0.0,7.06804406,,,28
Fe2MnSb,full,mp-1221899,Mn2FeSbO6,-1.9357220010862064,-7.999385538,1.3392999999999997,4.7070724,,,28
Fe2MnSb,full,mp-1227954,CaMn25FeSi4SbO44,-2.2265274590562614,-8.58515746618421,0.01770000000000005,3.78379694,,,28
Fe2MnSb,full,mp-1189105,Mn2FeSbO6,-1.898524214086207,-7.962187751,1.2988999999999997,4.78656097,,,28
Fe2NiAl,full,mp-31186,AlFe2Ni,-0.09435004249999945,-6.710788775,0.0,7.15918299,133.148,-0.664,29
Fe2NiAl,full,mp-1228910,Al2FeNi,-0.5236166950000003,-5.9589440825,0.0,8.66497251,,,29
Fe2NiAl,full,mp-867330,Al2FeNi,-0.4992086899999997,-5.9345360775,0.0,8.85645316,163.496,0.27,29
Fe2NiGa,full,mp-622990,GaFe2Ni,-0.018714536875000576,-6.4557833175,0.0,5.90093716,158.207,-1.556,29
Fe2NiGa,full,mp-1065359,GaFeNi2,-0.19702273937499992,-5.9616203875,0.0,6.55779165,,,29
Fe2NiGa,full,mp-1224929,GaFeNiO4,-1.773262669642857,-7.071449641428572,0.0,3.60582852,,,29
Fe2NiIn,full,mp-1223864,InFeNi,0.19875887777777854,-5.471018333333333,0.0,8.28666256,,,29
Fe2NiIn,full,mp-1206345,InFeNi,0.29335328444444525,-5.376423926666667,0.0,7.9444052,,,29
Fe2NiIn,full,mp-1206342,InFeNi,0.11898380277777794,-5.550793408333334,0.0,8.15335748,,,29
Fe2NiSi,full,mp-1207121,Fe2SiNi,-0.2841897899999992,-7.3205640725,0.0,8.30838168,,,30
Fe2NiSi,full,mp-1212682,Fe3SiNi,-0.2575840720000002,-7.58068774,0.0,7.43736132,,,30
Fe2NiSi,full,mp-1103705,FeSiNi,-0.3934152391666655,-6.951907212499999,0.0,8.69028113,,,30
Fe2NiGe,full,mp-1206550,FeNiGe,-0.1554445383333333,-6.446506453333334,0.0,7.84451223,,,30
Fe2NiGe,full,mp-1024972,FeNiGe,-0.06452609833333274,-6.355588013333333,0.0,8.19493399,,,30
Fe2NiGe,full,mp-1225094,FeNi2Ge,-0.1616681562499993,-6.3249987625,0.0,8.18045895,,,30
Fe2NiSn,full,mp-1207152,FeNiSn,0.15344652666666767,-5.9331300549999995,0.0,8.86147165,,,30
Fe2NiSn,full,mp-775990,Fe3Ni2Sn(PO4)6,-2.2584388706349205,-7.600857741111112,0.0,1.48210535,,,30
Fe2NiSn,full,mp-780843,Li4Fe2Ni3Sn(PO4)6,-2.317048530904761,-7.248870687749999,3.0536,2.01722233,,,30
Fe2NiP,full,mp-1221201,Na4FeNi(PO4)3,-2.411944206402181,-6.949593075476191,2.1249000000000002,4.04690789,,,31
Fe2NiP,full,mp-1233940,MgCr2Fe3Ni(PO4)6,-2.3392839187258687,-7.838579479729731,1.5388000000000002,1.80826124,,,31
Fe2NiP,full,mp-1043103,MgFeNiP2O9,-2.2883389628061224,-7.379906709821428,0.21689999999999987,2.21172368,,,31
Fe2NiAs,full,mp-1080824,FeNiAs,-0.12250212583333327,-6.429262266666666,0.0,7.97508306,,,31
Fe2NiAs,full,mp-1224728,Fe(NiAs)2,-0.15066083966666685,-6.024768766666667,0.0,6.28473504,,,31
Fe2NiAs,full,mp-1224951,FeNiAs4,-0.25122920166666657,-5.739670538333332,0.0,6.61935191,,,31
Fe2NiSb,full,mp-1233872,MgFe3Ni2Sb(PO4)6,-2.2513381119691114,-7.496661861621622,0.13680000000000003,3.08808173,,,31
Fe2NiSb,full,mp-1233991,MgFe3Ni2Sb(PO4)6,-2.2906878638610038,-7.536011613513514,1.5014000000000003,2.92293884,,,31
Fe2NiSb,full,mp-1233545,MgFe3Ni2Sb(PO4)6,-2.2626760303474898,-7.5079997800000005,0.8784000000000001,3.12317812,,,31
Ni2ScAl,full,mp-12781,ScAl2Ni,-0.6569232937500002,-5.557862655,0.0,6.79041243,95.155,0.222,26
Ni2ScAl,full,mp-10898,ScAlNi2,-0.6274300212499995,-6.037009595,0.0,7.07468705,129.687,0.307,26
Ni2ScAl,full,mp-1219369,ScAlNi,-0.5925248058333334,-5.878585344166667,0.0,6.63829791,,,26
Ni2ScGa,full,mp-1219310,ScGaNi,-0.607679980833335,-5.654580583333335,0.0,5.20925731,,,26
Ni2ScGa,full,mp-11400,ScGaNi2,-0.5701341281249999,-5.80034375,0.0,6.35651851,128.473,0.327,26
Ni2ScGa,full,mp-11401,ScGa2Ni,-0.6466493674999994,-5.188848825,0.0,5.27129321,101.551,0.252,26
Ni2ScIn,full,mp-21301,ScInNi2,-0.4427034254166662,-5.6056824775,0.0,7.81085038,128.198,0.298,26
Ni2ScIn,full,mp-1207011,ScInNi4,-0.40745161361111215,-5.7761498750000015,0.0,8.1355773,,,26
Ni2ScIn,full,mp-13416,Sc2InNi2,-0.5231527093333312,-5.920029771999998,0.0,6.42422019,,,26
Ni2ScSi,full,mp-15605,ScSi3Ni2,-0.6287943300000004,-6.323577089166666,0.0,7.84943138,135.947,0.28,27
Ni2ScSi,full,mp-3129,ScSi3Ni,-0.5784356899999998,-6.256147664999999,0.0,7.98434497,,,27
Ni2ScSi,full,mp-3587,Sc(SiNi)2,-0.7668950669999994,-6.515570771999999,0.0,7.66163208,151.528,0.32,27
Ni2ScGe,full,mp-29802,Sc(NiGe)6,-0.39853352384615337,-5.687107086538462,0.0,6.75120065,,,27
Ni2ScGe,full,mp-7066,ScNiGe,-0.8176570216666631,-6.396201568333329,0.0,6.6789647,124.163,0.282,27
Ni2ScGe,full,mp-22490,Sc3(NiGe)4,-0.7390669995454534,-6.249072949999999,0.0,6.78826082,,,27
Ni2ScSn,full,mp-1215239,ZrSc(NiSn)2,-0.6436186891666663,-6.386883156666666,0.0,6.61197134,,,27
Ni2ScSn,full,mp-11808,ScNi4Sn,-0.41218768333333483,-5.989285630000001,0.0,8.48580346,140.435,0.32,27
Ni2ScSn,full,mp-1219264,ScTi(NiSn)2,-0.568638249722221,-6.203201281666666,0.0,7.14452673,,,27
Ni2ScP,full,mp-10240,ScNiP,-1.2027551957142844,-7.045448299166665,0.0,8.16308964,147.371,0.241,28
Ni2ScP,full,mp-1189201,Sr2ScNiPO3,-2.4104739427678563,-6.881689775,0.0,4.80867689,,,28
Ni2ScP,full,mp-961675,ScNiP,-1.0339522665476188,-6.876645369999999,0.5921000000000003,6.95032641,129.129,0.269,28
Ni2ScAs,full,mp-1104526,Sc(Ni2As)2,-0.5848700928571416,-6.126764505714284,0.0,7.73215145,,,28
Ni2ScSb,full,mp-1078244,ScNi2SbO6,-2.1751020319999994,-7.348634636,0.0,6.10113052,,,28
Ni2ScSb,full,mp-2234075,MgScNi2SbO6,-2.061365826818182,-6.912801831818182,1.8058000000000005,5.73806525,,,28
Ni2ScSb,full,mp-3432,ScNiSb,-0.9635939116666634,-6.377462919999997,0.2679,7.3709767,103.751,0.235,28
Ni2TiAl,full,mp-1018016,Ti2AlNi,-0.2644448066666678,-6.5936189425,0.0,7.19325753,,,27
Ni2TiAl,full,mp-1187453,Ti2AlNi,-0.27091067666666735,-6.6000848125,0.0,7.00039012,,,27
Ni2TiAl,full,mp-1217197,Ti3AlNi12,-0.4730627462499992,-6.52266849875,0.0,7.903294,,,27
Ni2TiGa,full,mp-1216876,TiGaNi6,-0.40348692635416583,-6.10403794125,0.0,7.58949577,,,27
Ni2TiGa,full,mp-30656,TiGaNi,-0.5492847036111113,-6.117192943333333,0.0,6.34586067,127.561,0.281,27
Ni2TiGa,full,mp-30657,TiGaNi2,-0.5410241252083337,-6.161989475,0.0,7.02923794,166.368,0.366,27
Ni2TiIn,full,mp-20339,Ti2InNi2,-0.405546499666665,-6.427632726999998,0.0,7.84091106,,,27
Ni2TiIn,full,mp-1216917,TiInNi2,-0.3272317099999995,-5.88096649,0.0,8.29799372,,,27
Ni2TiIn,full,mp-999076,Ti2InNi,-0.09534269583333366,-6.17791631,0.0,7.79196708,35.899,0.068,27
Ni2TiSi,full,mp-510409,TiSiNi,-0.8213955294444446,-7.188377771666666,0.0,8.35307614,176.474,0.252,28
Ni2TiSi,full,mp-1208276,Ti2SiNi3,-0.6133287519444449,-7.039447435833334,0.0,8.36829368,,,28
Ni2TiSi,full,mp-18583,Ti4Si7Ni4,-0.6777947102222233,-6.85644411,0.0,9.30216964,,,28
Ni2TiGe,full,mp-16356,TiNiGe,-0.6761965602777771,-6.775748744166666,0.0,7.6656837,158.126,0.276,28
Ni2TiGe,full,mp-1216682,TiNi4GeO8,-1.9382898691666657,-7.313802467142857,2.4516,4.14042932,,,28
Ni2TiGe,full,mp-961694,TiNiGe,-0.012492179444444437,-6.112044363333333,0.0,5.63597016,106.389,0.557,28
Ni2TiSn,full,mp-3740,TiNi2Sn,-0.43228060208333385,-6.29861491,0.0,9.10216642,159.419,0.393,28
Ni2TiSn,full,mp-623646,TiNiSn,0.1347682805555562,-5.76029857,0.0,6.66050826,95.54,0.53,28
Ni2TiSn,full,mp-924130,TiNiSn,-0.5294223494444452,-6.424489200000001,0.4527000000000001,7.66299415,123.819,0.265,28
Ni2TiP,full,mp-1102188,TiNiP,-1.065870581825397,-7.4295713225,0.0,9.51456789,,,29
Ni2TiP,full,mp-1177293,Li4TiCr2Ni3(PO4)6,-2.466093417613094,-7.5542148915,1.3658000000000001,2.91692348,,,29
Ni2TiP,full,mp-1044432,CaTiNi(PO4)3,-2.7533569595701053,-7.828624394166667,0.0,1.1829096,,,29
Ni2TiAs,full,mp-1102086,TiNiAs,-0.7698371327777783,-6.8850875425,0.0,8.24014169,,,29
Ni2TiSb,full,mp-10261,TiNi2Sb,-0.4026089683333334,-6.2988006225,0.0,10.0176655,137.552,0.406,29
Ni2TiSb,full,mp-20952,TiNiSb,-0.5575641111111113,-6.492440756666667,0.0,8.86156108,126.65,0.297,29
Ni2TiSb,full,mp-581712,TiNiSb,-0.10099648111111037,-6.035873126666666,0.0,6.67035444,93.894,0.642,29
Ni2VAl,full,mp-1228840,AlVNi2,-0.38574033395833496,-11.582017428958334,0.0,8.14389952,,,28
Ni2VAl,full,mp-10899,AlVNi2,-0.39258929145833577,-11.588866386458335,0.0,7.99677711,167.301,0.352,28
Ni2VAl,full,mp-961650,AlVNi,0.3579674366666647,-10.576496303333336,0.0,5.7260351,119.158,0.08,28
Ni2VGa,full,mp-30658,VGaNi2,-0.27447872146904473,-12.648425221469044,0.0,6.91626891,167.969,0.394,28
Ni2VGa,full,mp-961690,VGaNi,0.2930879651990068,-12.211601648134327,0.0,4.51454338,,,28
Ni2VGa,full,mp-1216351,VGaNi6,-0.27485251500000096,-12.452684345,0.0,7.58934961,,,28
Ni2VSi,full,mp-1095532,VSiNi,-0.596647199166668,-12.211666360833334,0.0,8.63249284,,,29
Ni2VSi,full,mp-1216307,VSiNi,-0.43484012916666853,-12.049859290833334,0.0,9.04419308,,,29
Ni2VSi,full,mp-504625,V3SiNi2,-0.3100859409166669,-12.811073625083333,0.0,7.69738953,,,29
Ni2VGe,full,mp-1095536,VNiGe,-0.33336745833333364,-6.82905766,0.0,7.97786688,,,29
Ni2VSn,full,mp-20864,VNi2Sn,-0.11478652624999963,-6.2782243475,0.0,9.42588131,122.027,0.413,29
Ni2VSn,full,mp-1221615,MnV(Ni2Sn)2,-0.14269160599137987,-6.31589308,0.0,8.88630852,,,29
Ni2VSn,full,mp-775213,VNi3Sn2(PO4)6,-2.276297751329364,-7.437148593333333,1.4981999999999998,2.36136275,,,29
Ni2VP,full,mp-1332813,MgVNiP2O9,-2.5560446683418365,-7.691461333928572,1.9890000000000003,2.68271611,,,30
Ni2VP,full,mp-646633,V2Ni(PO5)2,-2.4588555209523815,-8.078957727333334,1.5047000000000001,2.47370993,,,30
Ni2VP,full,mp-1333433,VZnNiP2O9,-2.3312849972704086,-7.440221205357143,1.9474,2.45321169,,,30
Ni2VAs,full,mp-1216333,VNi3AsO8,-1.6970574259615385,-7.136484227692308,2.6658000000000004,5.56869498,,,30
Ni2VAs,full,mp-1101976,VNiAs,-0.39703514333333345,-6.908423570833333,0.0,8.13917752,,,30
Ni2VAs,full,mp-1228018,Ba3V2Ni6(AsO6)4,-2.055291493589744,-7.084531916923077,3.1805000000000003,1.93719416,,,30
Ni2VSb,full,mp-1067900,V2NiSb,0.06088966653571504,-16.405906420964286,0.0,8.64774293,,,30
Ni2VSb,full,mp-505599,VNiSb,-0.1246844223095233,-17.383887295642857,0.0,8.0590061,142.304,0.349,30
Ni2VSb,full,mp-757444,VNi3Sb2(PO4)6,-2.227279187440475,-7.394764995277778,0.0027000000000003688,2.07336461,,,30
Ni2CrAl,full,mp-1228914,Al4CrNi15,-0.3393311669999989,-11.4257058225,0.0,8.41548781,,,29
Ni2CrAl,full,mp-10885,AlCrNi2,-0.2589189762499995,-11.701137736249999,0.0,7.83429479,160.697,0.38,29
Ni2CrAl,full,mp-1228985,AlCrNi,-0.04825331000000214,-11.310639270000003,0.0,7.82134245,,,29
Ni2CrGa,full,mp-1226319,CrGa3(NiS4)2,-0.7523876708928563,-5.281279487857143,0.0,4.61381626,,,29
Ni2CrIn,full,mp-1226434,CrInNiS4,-0.7261265630952372,-5.689811729285714,0.0,5.34859379,,,29
Ni2CrIn,full,mp-1007991,CrInNi2,0.046278841250002145,-15.35756293125,0.0,8.09004261,,,29
Ni2CrSi,full,mp-1103085,CrSiNi,-0.2654976916666669,-12.208439073333333,0.0,8.59548779,,,30
Ni2CrSi,full,mp-505629,Cr3SiNi2,-0.04732941180555391,-13.040200425972222,0.0,7.83617577,,,30
Ni2CrSi,full,mp-1221908,Mn3Cr3Si7Ni16,-0.42300217269074236,-12.22968692860632,0.0,8.28031421,,,30
Ni2CrSn,full,mp-778614,Li4Cr2Ni3Sn(PO4)6,-2.3485925491547612,-7.339566019,1.4918,3.21958211,,,30
Ni2CrSn,full,mp-1226279,CrCu4NiSn2,0.13264745750000007,-4.84849686,0.0,8.54043395,,,30
Ni2CrSn,full,mp-1221685,MnCr(Ni2Sn)2,-0.10678074974137886,-6.35112489875,0.0,8.84760418,,,30
Ni2CrP,full,mp-776777,Li4CrCo2Ni3(PO4)6,-2.275351350029762,-7.281430172750001,2.9872,1.77947624,,,31
Ni2CrP,full,mp-777498,Ti3CrNi2(PO4)6,-2.7314317721626984,-8.182736421388888,0.04949999999999921,4.35682972,,,31
Ni2CrP,full,mp-754644,CrNi3(PO4)4,-2.081827140357143,-7.410642605833334,0.0,1.86801298,,,31
Ni2CrAs,full,mp-4989,CrNiAs,-0.3350252663888903,-14.25588877888889,0.0,7.59655165,130.106,0.295,31
Ni2CrAs,full,mp-1226031,Cr5NiAs3,-0.20173996157407398,-14.809631302962963,0.0,6.9887641,,,31
Ni2CrSb,full,mp-775941,Cr2Ni3Sb(PO4)6,-2.229474618273809,-7.5662156380555565,0.0,1.99191714,,,31
Ni2CrSb,full,mp-1018161,CrNiSb,-0.015090736666666752,-17.602215830000002,0.0,7.54905214,104.241,0.306,31
Ni2CrSb,full,mp-1221891,Mn2CrNiSb2,0.14432173350574592,-17.828071660000003,0.0,6.73225489,,,31
Ni2MnAl,full,mp-1222882,LaMnAlNi3,-0.3558800121551731,-6.21988139,0.0,7.86212635,,,30
Ni2MnAl,full,mp-1221740,MnAlNi6,-0.25653153974137854,-6.20508294,0.0,8.21255872,,,30
Ni2MnAl,full,mp-4922,MnAlNi2,-0.404369411982759,-6.5213355325,0.0,7.57571564,158.539,0.352,30